 Gaussian 16, Revision B.01,
 Gaussian 16:  ES64L-G16RevB.01 20-Dec-2017

 -------------------------------------------------------------
 #p opt freq pbepbe 6-31+g(d) pop=(nboread,cm5) maxdisk=1000GB
 -------------------------------------------------------------

 -------
 benzene
 -------
 Symbolic Z-matrix:
 Charge =  0 Multiplicity = 1

 SCF Done:  E(RPBE-PBE) =  -231.944365389     A.U. after   10 cycles
 SCF Done:  E(RPBE-PBE) =  -231.944975337     A.U. after    8 cycles
 SCF Done:  E(RPBE-PBE) =  -231.944977628     A.U. after    7 cycles
 Optimization completed.
    -- Stationary point found.
 Normal termination of Gaussian 16 at Tue Nov 19 14:11:53 2019.

 ----------------------------------------------------------------------
 #P Geom=AllCheck Guess=TCheck SCRF=Check GenChk RPBEPBE/6-31+G(d) Freq
 ----------------------------------------------------------------------

 Structure from the checkpoint file:  "/home/selsami/riccardo/benzene_pbe_631pg-d.chk"
 -------
 benzene
 -------
 Charge =  0 Multiplicity = 1

                         Standard orientation:
 ---------------------------------------------------------------------
 Center     Atomic      Atomic             Coordinates (Angstroms)
 Number     Number       Type             X           Y           Z
 ---------------------------------------------------------------------
      1          6           0        1.068278   -0.911976    0.000000
      2          6           0       -0.255683   -1.381133   -0.000007
      3          6           0       -1.323938   -0.469165    0.000006
      4          6           0       -1.068262    0.911996   -0.000001
      5          6           0        0.255658    1.381138   -0.000006
      6          6           0        1.323946    0.469141    0.000006
      7          1           0        1.901561   -1.623414    0.000005
      8          1           0       -0.455089   -2.458511   -0.000006
      9          1           0       -2.356702   -0.835091    0.000012
     10          1           0       -1.901596    1.623374   -0.000001
     11          1           0        0.455141    2.458502   -0.000002
     12          1           0        2.356685    0.835140    0.000004
 ---------------------------------------------------------------------

 SCF Done:  E(RPBE-PBE) =  -231.944977628     A.U. after    1 cycles

 The electronic state is 1-A.
 Alpha  occ. eigenvalues --   -9.91198  -9.91180  -9.91180  -9.91144  -9.91144
 Alpha  occ. eigenvalues --   -9.91127  -0.77574  -0.67554  -0.67554  -0.54336
 Alpha  occ. eigenvalues --   -0.54336  -0.47087  -0.41298  -0.39579  -0.37489
 Alpha  occ. eigenvalues --   -0.37489  -0.32775  -0.30227  -0.30227  -0.22903
 Alpha  occ. eigenvalues --   -0.22903
 Alpha virt. eigenvalues --   -0.04208  -0.04208  -0.00450   0.01551   0.01551
 Alpha virt. eigenvalues --    0.03611   0.03611   0.05536   0.06460   0.06965
 Alpha virt. eigenvalues --    0.08213   0.08213   0.08918   0.09428   0.13043

 Mulliken charges:
               1
     1  C   -0.189777
     2  C   -0.189776
     3  C   -0.189767
     4  C   -0.189777
     5  C   -0.189777
     6  C   -0.189768
     7  H    0.189774
     8  H    0.189773
     9  H    0.189774
    10  H    0.189774
    11  H    0.189773
    12  H    0.189774
 Sum of Mulliken charges =  -0.00000

 Dipole moment (field-independent basis, Debye):
    X=             -0.0000    Y=             -0.0000    Z=              0.0000  Tot=              0.0000
 Quadrupole moment (field-independent basis, Debye-Ang):
   XX=            -32.0261   YY=            -32.0263   ZZ=            -40.4248
   XY=             -0.0000   XZ=             -0.0000   YZ=             -0.0000

  Exact polarizability:  80.676   0.001  80.677   0.000   0.000  41.220
 Approx polarizability: 158.726  -0.000 158.725   0.000   0.000  63.277

 Summary of Natural Population Analysis:

                                       Natural Population
                Natural  -----------------------------------------------
    Atom  No    Charge         Core      Valence    Rydberg      Total
 -----------------------------------------------------------------------
      C    1   -0.25160      1.99913     4.23842    0.01405     6.25160
      C    2   -0.25160      1.99913     4.23842    0.01405     6.25160
      C    3   -0.25160      1.99913     4.23842    0.01405     6.25160
      C    4   -0.25160      1.99913     4.23842    0.01405     6.25160
      C    5   -0.25160      1.99913     4.23842    0.01405     6.25160
      C    6   -0.25160      1.99913     4.23842    0.01405     6.25160
      H    7    0.25160      0.00000     0.74752    0.00088     0.74840
      H    8    0.25160      0.00000     0.74752    0.00088     0.74840
      H    9    0.25160      0.00000     0.74752    0.00088     0.74840
      H   10    0.25160      0.00000     0.74752    0.00088     0.74840
      H   11    0.25160      0.00000     0.74752    0.00088     0.74840
      H   12    0.25160      0.00000     0.74752    0.00088     0.74840
 =======================================================================
   * Total *   -0.00000     11.99476    29.91565    0.08960    42.00000

                      1                      2                      3
                      A                      A                      A
 Frequencies --    394.9783               395.0981               599.5519
 Red. masses --      2.8787                 2.8790                 6.0565
 Frc consts  --      0.2646                 0.2648                 1.2827
 IR Inten    --      0.0000                 0.0000                 0.0000

                      4                      5                      6
                      A                      A                      A
 Frequencies --    599.5833               662.1472               691.0625
 Red. masses --      6.0563                 1.0848                 3.9445
 Frc consts  --      1.2828                 0.2802                 1.1099
 IR Inten    --      0.0000               125.8803                 0.0000

                      7                      8                      9
                      A                      A                      A
 Frequencies --    830.2675               830.3423               938.4835
 Red. masses --      1.2481                 1.2481                 1.3733
 Frc consts  --      0.5069                 0.5070                 0.7126
 IR Inten    --      0.0000                 0.0000                 0.0000

                     10                     11                     12
                      A                      A                      A
 Frequencies --    938.5770               971.6472               984.9638
 Red. masses --      1.3732                 1.2165                 6.5772
 Frc consts  --      0.7127                 0.6767                 3.7595
 IR Inten    --      0.0000                 0.0000                 0.0000

                     13                     14                     15
                      A                      A                      A
 Frequencies --    994.8772              1039.9035              1040.0991
 Red. masses --      6.0329                 1.6746                 1.6738
 Frc consts  --      3.5182                 1.0669                 1.0668
 IR Inten    --      0.0000                 6.4538                 6.4534

                     16                     17                     18
                      A                      A                      A
 Frequencies --   1150.6528              1171.5491              1171.6026
 Red. masses --      1.0362                 1.1266                 1.1265
 Frc consts  --      0.8083                 0.9110                 0.9111
 IR Inten    --      0.0000                 0.0000                 0.0000

                     19                     20                     21
                      A                      A                      A
 Frequencies --   1335.0522              1363.0458              1475.7612
 Red. masses --      1.2481                 9.0497                 2.0541
 Frc consts  --      1.3107                 9.9062                 2.6358
 IR Inten    --      0.0000                 0.0000                 5.2975

                     22                     23                     24
                      A                      A                      A
 Frequencies --   1475.9467              1603.2560              1603.3806
 Red. masses --      2.0553                 5.6064                 5.6076
 Frc consts  --      2.6379                 8.4907                 8.4937
 IR Inten    --      5.2985                 0.0000                 0.0000

                     25                     26                     27
                      A                      A                      A
 Frequencies --   3103.3958              3113.1360              3113.2200
 Red. masses --      1.0828                 1.0870                 1.0870
 Frc consts  --      6.1443                 6.2067                 6.2070
 IR Inten    --      0.0003                 0.0000                 0.0000

                     28                     29                     30
                      A                      A                      A
 Frequencies --   3128.7103              3128.7914              3138.7537
 Red. masses --      1.0948                 1.0948                 1.0991
 Frc consts  --      6.3143                 6.3146                 6.3799
 IR Inten    --     47.3046                47.3111                 0.0000

 - Thermochemistry -
 -------------------
 Temperature   298.150 Kelvin.  Pressure   1.00000 Atm.
 Atom     1 has atomic number  6 and mass  12.00000

 Molecular mass:    78.04695 amu.
 Principal axes and moments of inertia in atomic units:
                           1         2         3
     Eigenvalues --   321.12981 321.13298 642.26280
           X            0.99996   0.00908  -0.00000
           Y           -0.00908   0.99996  -0.00000
           Z            0.00000   0.00000   1.00000
 This molecule is an asymmetric top.
 Rotational symmetry number  1.
 Rotational temperatures (Kelvin)      0.26972     0.26971     0.13486
 Rotational constants (GHZ):           5.61997     5.61992     2.80997
 Zero-point vibrational energy     257124.4 (Joules/Mol)
                                   61.45420 (Kcal/Mol)
 Warning -- explicit consideration of   4 degrees of freedom as
           vibrations may cause significant error
 Vibrational temperatures:    568.29   568.46   862.62   862.67   952.68
          (Kelvin)            994.28  1194.57  1194.68  1350.27  1350.40
                             1397.98  1417.14  1431.41  1496.19  1496.47
                             1655.53  1685.60  1685.67  1920.84  1961.12
                             2123.29  2123.56  2306.73  2306.91  4465.09
                             4479.11  4479.23  4501.52  4501.63  4515.97

 Zero-point correction=                           0.097933 (Hartree/Particle)
 Thermal correction to Energy=                    0.102468
 Thermal correction to Enthalpy=                  0.103412
 Thermal correction to Gibbs Free Energy=         0.070388
 Sum of electronic and zero-point Energies=           -231.847044
 Sum of electronic and thermal Energies=              -231.842510
 Sum of electronic and thermal Enthalpies=            -231.841566
 Sum of electronic and thermal Free Energies=         -231.874590

                     E (Thermal)             CV                S
                      KCal/Mol        Cal/Mol-Kelvin    Cal/Mol-Kelvin
 Total                   64.300             17.906             69.505
 Electronic               0.000              0.000              0.000
 Translational            0.889              2.981             38.979
 Rotational               0.889              2.981             25.696
 Vibrational             62.522             11.944              4.830
 Vibration     1          0.762              1.481              0.981
 Vibration     2          0.762              1.481              0.981
 Vibration     3          0.958              1.033              0.450
 Vibration     4          0.958              1.033              0.450

 Optimization completed.
    -- Stationary point found.
 Normal termination of Gaussian 16 at Tue Nov 19 14:12:20 2019.
